version 2
run Single-0-20110902-15:41:53-6108
attr configname Single
attr datetime 20110902-15:41:53
attr experiment Single
attr inifile /home/anuchart/simulation/UCAC/nocrypto.ini
attr iterationvars ""
attr iterationvars2 $repetition=0
attr measurement ""
attr network UCACnet
attr processid 6108
attr repetition 0
attr replication #0
attr resultdir results
attr runnumber 0
attr seedset 0

vector 0  UCACnet.owner[0]  latency:vector  ETV
attr interpolationmode  none
attr title  "Latency time of file print, vector"
attr unit  s
0	171	40.391066399387	32.43232135373
0	357	94.672281518988	33.432428427425
0	533	132.287381338434	31.430484848898
0	709	198.073189069435	31.303351598387
0	875	243.240833445124	27.112199039108
0	1071	282.538293974197	32.975407105583
0	1257	321.990253273445	37.914370081926
0	1463	385.323085223727	41.596356037532
0	1659	438.202532534493	36.380754237533
0	1845	478.314890797701	31.070678345203
0	2031	521.230426018432	35.165254867088
0	2217	556.048484896987	31.044240637858
0	2403	595.955223220656	36.952040095878
0	2569	646.902060619539	26.32437032341
0	2755	688.755908419206	31.025568631368
0	2931	754.554092287133	29.462713690049
0	3117	791.957625108953	33.708132427661
0	3293	825.911660645609	28.099681601079
0	3499	873.6377623595	36.334058328894
0	3665	954.589593595106	26.017494399842
0	3831	987.267461049535	25.993887350265
0	4007	1027.716349212863	29.34691408929
0	4193	1077.455816160925	37.725411643235
0	4379	1113.871111859853	30.481822788194
0	4575	1183.256523177563	49.853888791535
0	4781	1228.748033276659	37.032340832432
0	4967	1266.059455131855	30.149304633195
0	5143	1305.829794267189	31.880542958366
0	5349	1353.870171116104	41.358199758015
0	5515	1388.692150897675	30.404498047261
0	5671	1415.011987315165	23.999999999976
0	5847	1444.865614068057	27.652588596165
0	6043	1495.910042041202	38.702635538905
0	6219	1530.561072162317	30.24251955016
0	6405	1561.64708796911	29.549557885505
0	6581	1606.263962443179	31.957199721013
0	6737	1635.000763158839	23.999999999976
0	6903	1665.636327163734	26.442020946483
0	7069	1703.406219998269	27.470650793345
0	7275	1754.520575623977	47.256822363465
0	7451	1801.018442822633	33.142148192859
0	7627	1839.359487533046	31.700486410916
0	7813	1888.561408723878	39.163229594236
0	7979	1929.770903621115	26.957068875899
0	8155	1991.333000774458	28.974080243429
0	8321	2027.782962658732	25.472092896004
0	8497	2065.172209677487	29.704636529115
0	8673	2100.684086477659	30.75254721986
0	8859	2153.98196657929	30.890070718796
0	9025	2186.827072854955	27.141492804594
0	9221	2222.751117098984	34.248676727117
0	9397	2274.987021358441	28.216230999201
0	9573	2349.387067838461	31.688615541585
0	9759	2397.307615368392	34.417019243225
0	9955	2453.655735241429	42.488711290589
0	10131	2484.515574421857	29.143676718249
0	10327	2526.94525705808	39.774512206745
0	10523	2571.088300538271	41.301800044921
0	10699	2609.460661833495	30.996037243416
0	10905	2654.719253643544	39.3761400288
0	11081	2712.971186200296	28.072481702396
0	11277	2753.106450084102	31.440619550609
0	11443	2782.255317673055	25.940344743594
0	11629	2842.225270378016	37.876308767201
0	11815	2884.627522522932	31.989278538339
0	11991	2923.645953497529	37.168268583311
0	12167	2982.866788356288	30.674018966298
0	12353	3042.515053766727	38.343212402208
0	12539	3081.614498104052	29.68631047
0	12695	3109.416424125348	23.999999999976
0	12861	3156.6655224854	32.462290694381
0	13037	3187.743520630591	27.16453717246
0	13203	3215.838250507178	26.180672922096
0	13399	3273.023216755353	34.564931969529
0	13595	3311.850331315314	37.243897693501
0	13771	3358.40197334614	33.914753238389
0	13957	3442.563142979556	36.431311036347
0	14143	3482.881121640216	35.928596309185
0	14309	3515.580365398286	27.509033484286
0	14495	3557.538572652346	31.749854635891
0	14671	3610.654565602902	31.174447208416
0	14847	3667.836660976223	34.191125231243
0	15033	3718.620693832996	37.819566689187
0	15209	3761.178479504538	28.099372408554
0	15375	3819.56809707572	25.485328823694
0	15561	3866.299912618086	32.964974429548
0	15747	3909.15602165243	31.130719335198
0	15923	3956.333769562952	29.363652845581
0	16109	3998.598488242619	33.646146918992
0	16275	4034.078481047652	29.103860139187
0	16461	4067.702713045359	30.266311027395
0	16657	4111.635507973072	38.204907689453
0	16843	4146.788151714198	32.847633624124
0	17039	4199.384734061064	38.106986430566
0	17235	4240.297437091994	36.824090327215
0	17421	4282.073020051509	40.349419382403
0	17607	4326.761550599103	31.198292480677
0	17793	4371.9543378363	35.173796589208
0	17949	4399.751829391735	23.999999999976
0	18145	4446.208543094858	42.48760924144
0	18321	4486.593359963094	32.393058668535
0	18517	4526.478911408941	35.084685074628
0	18703	4604.077523408265	39.668705358343
0	18889	4679.153824779519	31.724373775445
0	19065	4711.906269174731	28.279132081247
0	19251	4761.520616701255	31.01468039577
0	19457	4811.310810020848	45.91674620276
0	19653	4880.51255346721	35.468780444022
0	19829	4917.84366144137	30.897866302335
0	20025	4961.145867592315	39.326168176256
0	20201	4993.1572262585	30.53755942043
0	20397	5031.07053161598	34.990640227587
0	20573	5079.781243034754	30.7477202787
0	20769	5123.381329672069	34.116569995021
0	20945	5155.94863087754	28.274949139659
0	21121	5190.183251151109	29.311673756471
0	21287	5226.76474223818	27.812325835977
0	21463	5278.576430079647	31.329931931709
0	21649	5312.663902895212	30.755584103027
0	21835	5363.287813631482	37.350443696986
0	22011	5396.407423946598	28.783026178928
0	22197	5427.790333792936	29.952222419601
0	22383	5478.348181904322	34.119898765814
0	22559	5519.04698171995	32.615956745764
0	22725	5550.548970007101	26.504142035494
0	22901	5612.158880945019	28.228489308469
0	23077	5657.442524020773	28.641825552989
0	23253	5696.071977390308	29.613586617529
0	23429	5733.335809884657	28.182075365978
0	23615	5800.990967835315	34.993529721861
0	23791	5846.142214273051	35.969542908489
0	23977	5884.429319021751	36.0876014709
0	24143	5914.519708304573	27.775860723202
0	24309	5948.490272323891	26.227495233348
0	24505	6000.265980686288	37.845963322828
0	24691	6039.313126537347	35.963862035546
0	24867	6083.68668525522	36.912770935903
0	25053	6131.206981360317	38.026777132117
0	25249	6200.268534809685	47.848825567597
0	25425	6233.229641697601	29.891207922501
0	25611	6295.568998788833	31.188227184638
0	25787	6337.578527081476	27.667820684712
0	25963	6399.77199304309	28.922513901459
0	26139	6437.087071381142	31.009652141294
0	26335	6483.464274393598	39.914599760835
0	26531	6517.865848964654	32.031532871304
0	26707	6552.441550494557	30.593018820197
0	26883	6591.249451772434	30.085367745154
0	27059	6620.720380859422	27.432576270051
0	27245	6660.281438991177	29.549106099548
0	27431	6706.47579250806	38.107461481827
0	27637	6751.413448836986	38.915109722866
0	27813	6806.078986666394	36.880370225333
0	27999	6840.451561454842	32.363899886346
0	28175	6872.937932196971	28.389985479522
0	28371	6921.838796260968	37.518197640069
0	28547	6964.039096912099	32.777170366472
0	28723	7013.47742649813	34.702236632904
0	28909	7064.543318205593	32.091684452246
0	29085	7104.303866482139	35.77939220983
0	29241	7132.610935094525	23.999999999976
0	29437	7213.574625426726	44.901799939844
0	29623	7253.571277356197	35.898591430706
0	29799	7307.29732892771	30.180576406183
0	29975	7340.609680200588	31.377734248246
0	30161	7383.044382112037	31.12837933645
0	30337	7418.883821050981	30.584492709387
0	30503	7448.238777523216	26.135975896392
0	30699	7488.424180782142	35.221281523753
0	30885	7533.802290293466	35.939844706171
0	31051	7570.679927360787	28.212050347204
0	31237	7618.097474818067	45.834933166672
0	31413	7660.643879565693	28.905882903985
0	31599	7698.390975612463	32.949429438489
