version 2
run Single-0-20110902-16:19:12-6321
attr configname Single
attr datetime 20110902-16:19:12
attr experiment Single
attr inifile /home/anuchart/simulation/UCAC/crypto.ini
attr iterationvars ""
attr iterationvars2 $repetition=0
attr measurement ""
attr network UCACnet
attr processid 6321
attr repetition 0
attr replication #0
attr resultdir results
attr runnumber 0
attr seedset 0

vector 0  UCACnet.owner[0]  latency:vector  ETV
attr interpolationmode  none
attr title  "Latency time of file print, vector"
attr unit  s
0	171	40.477151209387	32.51840616373
0	357	94.844451138988	33.518513237425
0	533	132.545635768434	31.516569658898
0	709	198.417528309435	31.389436408387
0	875	243.671257495124	27.198283849108
0	1071	283.054802834197	33.061491915583
0	1257	322.592846943445	38.000454891926
0	1463	386.011763703727	41.682440847532
0	1659	438.977295824493	36.466839047533
0	1845	479.175738897701	31.156763155203
0	2031	522.177358928432	35.251339677088
0	2217	557.081502616987	31.130325447858
0	2403	597.074325750656	37.038124905878
0	2569	648.107247959539	26.41045513341
0	2755	690.047180569206	31.111653441368
0	2931	755.931449247133	29.548798500049
0	3117	793.421066878953	33.794217237661
0	3293	827.461187225609	28.185766411079
0	3499	875.2733737495	36.420143138894
0	3665	956.311289795106	26.103579209842
0	3831	989.075242059535	26.079972160265
0	4007	1029.610215032863	29.43299889929
0	4193	1079.435766790925	37.811496453235
0	4379	1115.937147299853	30.567907598194
0	4575	1185.408643427563	49.939973601535
0	4781	1230.986238336659	37.118425642432
0	4967	1268.383745001855	30.235389443195
0	5143	1308.240168947189	31.966627768366
0	5349	1356.366630606104	41.444284568015
0	5515	1391.274695197675	30.490582857261
0	5671	1417.680616425165	24.086084809976
0	5847	1447.620327988057	27.738673406165
0	6043	1498.750840771202	38.788720348905
0	6219	1533.487955702317	30.32860436016
0	6405	1564.66005631911	29.635642695505
0	6581	1609.363015603179	32.043284531013
0	6737	1638.185901128839	24.086084809976
0	6903	1668.907549943734	26.528105756483
0	7069	1706.763527588269	27.556735603345
0	7275	1757.963968023977	47.342907173465
0	7451	1804.547920032633	33.228233002859
0	7627	1842.975049553046	31.786571220916
0	7813	1892.263055553878	39.249314404236
0	7979	1933.558635261115	27.043153685899
0	8155	1995.206817224458	29.060165053429
0	8321	2031.742863918732	25.558177706004
0	8497	2069.218195747487	29.790721339115
0	8673	2104.816157357659	30.83863202986
0	8859	2158.20012226929	30.976155528796
0	9025	2191.131313354955	27.227577614594
0	9221	2227.141442408984	34.334761537117
0	9397	2279.463431478441	28.302315809201
0	9573	2353.949562768461	31.774700351585
0	9759	2401.956195108392	34.503104053225
0	9955	2458.390399791429	42.574796100589
0	10131	2489.336323781857	29.229761528249
0	10327	2531.85209122808	39.860597016745
0	10523	2576.081219518271	41.387884854921
0	10699	2614.539665623495	31.082122053416
0	10905	2659.884342243544	39.4622248388
0	11081	2718.222359610296	28.158566512396
0	11277	2758.443708304102	31.526704360609
0	11443	2787.678660703055	26.026429553594
0	11629	2847.734698218016	37.962393577201
0	11815	2890.223035172932	32.075363348339
0	11991	2929.327550957529	37.254353393311
0	12167	2988.634470626288	30.760103776298
0	12353	3048.368820846727	38.429297212208
0	12539	3087.554349994052	29.77239528
0	12695	3115.442360825348	24.086084809976
0	12861	3162.7775439954	32.548375504381
0	13037	3193.941626950591	27.25062198246
0	13203	3222.122441637178	26.266757732096
0	13399	3279.393492695353	34.651016779529
0	13595	3318.306692065314	37.329982503501
0	13771	3364.94441890614	34.000838048389
0	13957	3449.191673349556	36.517395846347
0	14143	3489.595736820216	36.014681119185
0	14309	3522.381065388286	27.595118294286
0	14495	3564.425357452346	31.835939445891
0	14671	3617.627435212902	31.260532018416
0	14847	3674.895615396223	34.277210041243
0	15033	3725.765733062996	37.905651499187
0	15209	3768.409603544538	28.185457218554
0	15375	3826.88530592572	25.571413633694
0	15561	3873.703206278086	33.051059239548
0	15747	3916.64540012243	31.216804145198
0	15923	3963.909232842952	29.449737655581
0	16109	4006.260036332619	33.732231728992
0	16275	4041.826113947652	29.189944949187
0	16461	4075.536430755359	30.352395837395
0	16657	4119.555310493072	38.290992499453
0	16843	4154.794039044198	32.933718434124
0	17039	4207.476706201064	38.193071240566
0	17235	4248.475494041994	36.910175137215
0	17421	4290.337161811509	40.435504192403
0	17607	4335.111777169103	31.284377290677
0	17793	4380.3906492163	35.259881399208
0	17949	4408.274225581735	24.086084809976
0	18145	4454.817024094858	42.57369405144
0	18321	4495.287925773094	32.479143478535
0	18517	4535.259562028941	35.170769884628
0	18703	4612.944258838265	39.754790168343
0	18889	4688.106645019519	31.810458585445
0	19065	4720.945174224731	28.365216891247
0	19251	4770.645606561255	31.10076520577
0	19457	4820.521884690848	46.00283101276
0	19653	4889.80971294721	35.554865254022
0	19829	4927.22690573137	30.983951112335
0	20025	4970.615196692315	39.412252986256
0	20201	5002.7126401685	30.62364423043
0	20397	5040.71203033598	35.076725037587
0	20573	5089.508826564754	30.8338050887
0	20769	5133.194998012069	34.202654805021
0	20945	5165.84838402754	28.361033949659
0	21121	5200.169089111109	29.397758566471
0	21287	5236.83666500818	27.898410645977
0	21463	5288.734437659647	31.416016741709
0	21649	5322.907995285212	30.841668913027
0	21835	5373.617990831482	37.436528506986
0	22011	5406.823685956598	28.869110988928
0	22197	5438.292680612936	30.038307229601
0	22383	5488.936613534322	34.205983575814
0	22559	5529.72149815995	32.702041555764
0	22725	5561.309571257101	26.590226845494
0	22901	5623.005567005019	28.314574118469
0	23077	5668.375294890773	28.727910362989
0	23253	5707.090833070308	29.699671427529
0	23429	5744.440750374657	28.268160175978
0	23615	5812.181993135315	35.079614531861
0	23791	5857.419324383051	36.055627718489
0	23977	5895.792513941751	36.1736862809
0	24143	5925.968988034573	27.861945533202
0	24309	5960.025636863891	26.313580043348
0	24505	6011.887430036288	37.932048132828
0	24691	6051.020660697347	36.049946845546
0	24867	6095.48030422522	36.998855745903
0	25053	6143.086685140317	38.112861942117
0	25249	6212.234323399685	47.934910377597
0	25425	6245.281515097601	29.977292732501
0	25611	6307.706956998833	31.274311994638
0	25787	6349.802570101476	27.753905494712
0	25963	6412.08212087309	29.008598711459
0	26139	6449.483284021142	31.095736951294
0	26335	6495.946571843598	40.000684570835
0	26531	6530.434231224654	32.117617681304
0	26707	6565.096017564557	30.679103630197
0	26883	6603.990003652434	30.171452555154
0	27059	6633.547017549422	27.518661080051
0	27245	6673.194160491177	29.635190909548
0	27431	6719.47459881806	38.193546291827
0	27637	6764.498339956986	39.001194532866
0	27813	6819.249962596394	36.966455035333
0	27999	6853.708622194842	32.449984696346
0	28175	6886.281077746971	28.476070289522
0	28371	6935.268026620968	37.604282450069
0	28547	6977.554412082099	32.863255176472
0	28723	7027.07882647813	34.788321442904
0	28909	7078.230802995593	32.177769262246
0	29085	7118.077436082139	35.86547701983
0	29241	7146.470589504525	24.086084809976
0	29437	7227.520364646726	44.987884749844
0	29623	7267.603101386197	35.984676240706
0	29799	7321.41523776771	30.266661216183
0	29975	7354.813673850588	31.463819058246
0	30161	7397.334460572037	31.21446414645
0	30337	7433.259984320981	30.670577519387
0	30503	7462.701025603216	26.222060706392
0	30699	7502.972513672142	35.307366333753
0	30885	7548.436707993466	36.025929516171
0	31051	7585.400429870787	28.298135157204
0	31237	7632.904062138067	45.921017976672
0	31413	7675.536551695693	28.991967713985
0	31599	7713.369732552463	33.035514248489
0	31775	7744.239211606865	28.128694166785
0	31971	7823.920387661545	46.094681884183
0	32147	7860.560001720882	32.092877697315
0	32323	7900.31863107009	35.99784164228
0	32499	7939.819988007453	34.998249805175
0	32685	7974.416994201855	33.005392416812
0	32871	8011.71045182633	32.705957119521
0	33047	8061.809896129959	38.940827543074
0	33233	8117.378356466431	34.407001200403
0	33429	8160.857239897251	36.237197893443
0	33595	8194.54883266305	27.467175326267
0	33791	8260.246398729836	35.413056563244
0	33977	8303.770288849533	30.912952450634
0	34173	8343.467908913818	35.041680495167
0	34359	8387.603728802722	36.636555670341
0	34535	8421.745842542433	28.327900722625
0	34711	8456.9575894081	33.632277091625
0	34897	8489.827364878226	31.450961950344
0	35073	8523.086264318933	30.878443373083
0	35269	8568.974280989793	33.408573307538
0	35465	8623.067146410845	46.692407995278
0	35641	8656.045969569192	31.47533358772
0	35817	8696.758691022451	27.824640832461
0	36013	8757.209227524647	43.470637661889
0	36199	8793.702768128041	30.32967702743
0	36375	8845.841345945284	33.270763301147
0	36541	8895.290198682778	26.315314932605
0	36737	8936.898213466764	38.842194412801
0	36893	8967.087609119515	24.086084809976
0	37079	9011.10519750244	34.888904761287
0	37265	9075.87999391567	28.931361786305
0	37441	9112.732242539089	33.597959528601
0	37627	9157.158716538764	34.819881430309
0	37813	9202.847309763864	35.243801811066
0	37989	9235.835170646911	30.077807021424
0	38165	9270.323499283187	32.359293752013
0	38341	9321.269033417251	28.534397216698
0	38527	9355.860523320768	32.627922127611
0	38703	9410.998078976555	30.970281978263
0	38879	9459.084714651736	39.3507804277
0	39045	9492.52898431882	27.613802654291
0	39231	9536.592861472702	37.978449432697
0	39407	9569.431522389866	27.5305367846
0	39583	9626.045568016751	29.283979840101
0	39769	9666.110799848487	35.39114766781
0	39925	9696.117731018259	24.086084809976
0	40101	9742.213781609416	35.795858891971
0	40287	9778.459814779948	33.480467122389
0	40453	9815.284520237852	26.550313243322
0	40639	9860.473796234628	38.793302992624
0	40805	9902.336302711068	27.749151851448
0	40991	9961.186386190831	40.747402816515
0	41167	10005.38852071359	28.405725467871
0	41353	10036.691253220327	29.113191232296
0	41529	10072.027096660901	32.52619127493
0	41715	10118.750045029295	30.557880954712
0	41881	10152.246955984811	31.031844298263
0	42077	10212.694220128436	45.433390596539
0	42263	10266.403839740299	30.138458121029
0	42449	10321.285806271881	39.067171958754
0	42635	10356.143391396564	33.434537918011
0	42821	10403.369697561799	41.073180736299
0	42997	10456.899405026646	29.50668326528
0	43163	10486.403401743763	26.939558834619
0	43319	10550.924227583608	24.086084809976
0	43515	10586.560647218378	33.249942109418
0	43691	10622.365477522629	29.299827700212
0	43877	10658.968242157189	33.947315302942
0	44063	10697.466789634973	32.362296006368
0	44239	10744.95148675682	35.315881905581
0	44415	10786.157113950275	29.27584442803
0	44601	10824.746335982742	33.454698385751
0	44777	10858.043447167135	28.662710910525
