version 2
run Small-0-20110902-17:31:45-6468
attr configname Small
attr datetime 20110902-17:31:45
attr experiment Small
attr inifile /home/anuchart/simulation/UCAC/crypto.ini
attr iterationvars ""
attr iterationvars2 $repetition=0
attr measurement ""
attr network UCACnet
attr processid 6468
attr repetition 0
attr replication #0
attr resultdir results
attr runnumber 0
attr seedset 0

vector 8  UCACnet.owner[8]  latency:vector  ETV
attr interpolationmode  none
attr title  "Latency time of file print, vector"
attr unit  s
vector 0  UCACnet.owner[0]  latency:vector  ETV
attr interpolationmode  none
attr title  "Latency time of file print, vector"
attr unit  s
vector 4  UCACnet.owner[4]  latency:vector  ETV
attr interpolationmode  none
attr title  "Latency time of file print, vector"
attr unit  s
vector 6  UCACnet.owner[6]  latency:vector  ETV
attr interpolationmode  none
attr title  "Latency time of file print, vector"
attr unit  s
vector 1  UCACnet.owner[1]  latency:vector  ETV
attr interpolationmode  none
attr title  "Latency time of file print, vector"
attr unit  s
vector 3  UCACnet.owner[3]  latency:vector  ETV
attr interpolationmode  none
attr title  "Latency time of file print, vector"
attr unit  s
vector 9  UCACnet.owner[9]  latency:vector  ETV
attr interpolationmode  none
attr title  "Latency time of file print, vector"
attr unit  s
vector 7  UCACnet.owner[7]  latency:vector  ETV
attr interpolationmode  none
attr title  "Latency time of file print, vector"
attr unit  s
vector 2  UCACnet.owner[2]  latency:vector  ETV
attr interpolationmode  none
attr title  "Latency time of file print, vector"
attr unit  s
vector 5  UCACnet.owner[5]  latency:vector  ETV
attr interpolationmode  none
attr title  "Latency time of file print, vector"
attr unit  s
0	1374	27.072011399627	19.11326635397
0	2484	45.527591022141	12.596431583308
0	5275	89.727591021699	20.177532924091
0	6521	109.594261958167	7.39793567099
0	7775	129.527595291301	19.286267928217
0	8493	141.349146581174	9.386284816264
0	9982	165.099696490963	20.020569250636
0	12289	201.566363157265	23.363138379604
0	13257	217.311753050691	12.228709190011
0	14352	234.645086383851	16.135523704012
0	17336	282.501135401546	23.366867309334
0	18878	306.987143941302	19.830812702681
0	20436	331.85381060772	20.00130854606
0	21780	353.543721088565	15.526900610964
0	24286	393.310459754835	19.751649423186
0	26604	431.686072583856	13.302115190618
0	28853	467.219477916834	25.871718807683
0	31686	512.103253646785	25.046390023275
0	33483	540.636586979833	18.472315920513
0	34541	557.653554791958	15.917811787869
0	35506	572.920221458472	14.359648936409
0	37719	608.837956455761	27.639233784612
1	1576	30.338678066261	21.353074181422
1	4332	74.794257688515	27.515558873337
1	7186	120.260928624727	14.861438684366
1	11146	183.566363157445	29.154002755585
1	12253	200.966363157271	16.282167680652
1	14224	232.578419717205	18.735680827857
1	15727	257.034468735134	17.434386547234
1	17731	288.701135401484	20.87461030054
1	19021	309.253810607946	16.443576394709
1	20941	339.687143940976	14.60597736812
1	23555	381.610387754951	24.426919340575
1	24408	395.310459754815	11.224787062796
1	27133	439.95281125044	22.334801258128
1	28796	466.219477916844	15.935441283752
1	31038	501.769920313555	27.533333333058
1	33288	537.436586979865	16.324737321487
1	34833	562.253554791912	9.996861740052
1	36554	589.586888124972	18.500739777921
1	37681	608.171289789101	5.829654376675
1	39397	636.484484257659	23.184406784891
2	2118	39.162623744577	26.603316164104
2	3213	57.060924355359	16.143602382991
2	4433	76.394257688499	16.392406006306
2	5735	97.127591021625	18.978551184551
2	6462	108.727595291509	10.013501185708
2	8150	135.527595291241	21.782691039292
2	9509	157.566363157705	13.886756820177
2	11127	183.233029824115	22.032518383311
2	12420	203.766363157243	15.050881551887
2	15067	246.567802068572	22.16305256977
2	15958	260.701135401764	11.213188979178
2	18821	306.120477274644	24.878949860117
2	21195	343.820477274268	22.057575173132
2	23535	381.343721088287	19.027045581928
2	24937	404.163075429332	14.952178179711
2	28548	462.28614458355	25.673852719856
2	30364	491.236586980327	16.710483134157
2	31897	515.503253646751	20.675167842877
2	33368	538.703253646519	16.533360983836
2	37376	602.426921022445	28.774418351618
2	38624	623.171370328951	12.332761406637
2	40143	648.151150924209	14.490732084505
3	2041	37.691353272855	19.095311152109
3	4519	77.794257688485	31.432890692844
3	5369	91.394257688349	11.922985580115
3	8957	148.766363157793	35.5964001661
3	10377	171.433029824233	17.496386528709
3	11669	191.766363157363	17.826744248353
3	13167	215.778419717373	20.743666175251
3	14918	244.10113540193	24.720972498665
3	17435	284.10113540153	23.069472247876
3	19044	309.653810607942	23.629136798708
3	22984	372.610387755041	22.277080598362
3	25369	411.02981409593	24.79382483083
3	27143	440.086144583772	8.710269272741
3	29344	475.036586980489	15.788354171473
3	31106	502.969920313543	24.485510599678
3	33198	535.969920313213	25.020624511368
3	34271	553.386888125334	12.700810263853
3	37562	605.493591959081	30.567635687285
4	1389	27.338678066291	18.106446751584
4	4122	71.460924355215	25.04736965455
4	5760	97.527591021621	13.968316984415
4	8381	139.194270497871	15.730301063335
4	10353	171.033029824237	22.181397188971
4	12113	198.766363157293	26.617170870883
4	13519	221.378419717317	12.230568312415
4	14964	244.901135401922	17.911886114618
4	18009	293.167802068106	25.74236319078
4	19139	311.253810607926	8.257203090259
4	21263	344.95381060759	19.226576363398
4	22521	365.210387755115	14.891791321553
4	23802	385.577126421579	16.296821196952
4	24883	403.029801628073	15.46680699227
4	25500	413.096480762576	8.18339531899
4	26575	431.081076977575	15.735876607944
4	27488	445.61947791705	13.355740132859
4	29363	475.369920313819	20.951518144529
4	31097	502.769920313545	20.704947752432
4	33061	533.703253646569	16.524316087123
4	34167	551.70088812535	14.075278607094
4	35360	570.586888125162	14.438416743712
4	36314	585.653554791678	13.352877265564
4	37738	609.171289789091	22.080912093464
4	39204	633.351150924357	15.706601899234
5	2144	40.194185688861	20.678732330017
5	3437	60.660924355323	17.68565267905
5	5038	86.060924355069	20.268874426718
5	5909	99.994257688263	13.131432051739
5	7855	130.860928624621	21.687714525622
5	8729	145.233029824495	8.45524705567
5	10914	179.633029824151	28.200389298923
5	12306	201.899696490595	15.684762051676
5	16298	266.034468735044	14.610110031188
5	18317	298.167802068056	29.344052257933
5	19620	318.85381060785	17.421850317675
5	20934	339.553810607644	18.814197627038
5	23263	377.010387754997	25.441036261625
5	26269	425.229814095788	15.304671378016
5	28444	460.6194779169	15.615705610141
5	30928	500.103253646905	23.127720356231
5	31780	513.569920313437	9.035878264699
5	33190	535.836586979881	19.880403209911
5	34513	557.186888125296	8.019413873254
5	37296	601.186892394856	23.86618883745
5	38746	625.171370328931	13.997321582614
5	39554	639.017817590967	10.470916493425
6	1438	28.138678066283	20.266666666464
6	4216	72.860924355201	23.31910370951
6	6059	102.394257688239	13.600313333655
6	8117	134.994261957913	21.124878502104
6	10779	177.699696490837	31.327085691566
6	14395	235.378419717177	16.180254838304
6	16179	264.10113540173	24.99999999975
6	17587	286.43446873484	18.35800886492
6	19511	317.053810607868	11.986112494891
6	21126	342.62047727428	19.572853573458
6	22603	366.610387755101	17.599999999824
6	23846	386.310459754905	16.735453140846
6	26288	425.563147429118	15.220288373293
6	28970	469.086144583482	29.099145349206
6	30751	497.303253646933	19.460645445464
6	32636	527.036586979969	24.878387103487
6	33857	546.569920313107	15.339803303736
6	35767	577.053554791764	16.409146241755
6	37559	605.426925292415	27.479635088207
6	38596	622.704703662289	13.493367041705
6	40321	651.084484257513	21.776884715401
7	2093	38.695957077915	19.906316535888
7	4000	69.527591021901	20.884491219999
7	5302	90.260924355027	13.362189983777
7	6354	106.994261958193	12.172994781223
7	7965	132.594261957937	23.043162280744
7	9325	154.499696491069	12.466742936542
7	11095	182.699696490787	16.143239479254
7	13345	218.711753050677	14.950995864508
7	15097	247.1011354019	20.898245114332
7	16398	267.701135401694	13.642887206048
7	18184	295.901135401412	22.157200667214
7	20353	330.387143941068	17.92922508145
7	21917	355.810387755209	19.12333547566
7	23435	379.677054421637	19.732633282682
7	25266	409.429814095946	13.510942151552
7	27268	442.086144583752	26.212421541621
7	28504	461.486144583558	12.733249599843
7	29678	480.369920313769	17.019925825343
7	32025	517.503253646731	19.127817112065
7	34061	549.967546252034	26.260265629292
7	35301	569.586888125172	17.059503490108
7	37462	603.893587689097	21.699331529323
7	39220	633.617817591021	18.041408000051
8	321	10.405344733127	4.894859866424
8	2025	37.424686606191	22.621083815031
8	3297	58.460924355345	18.262419508459
8	4526	77.927591021817	16.171266272321
8	8683	144.499696491169	30.169555079249
8	10917	179.699696490817	20.836874600953
8	12624	206.966435157211	13.330063294949
8	14697	240.701135401964	25.121566377432
8	15618	255.234468735152	13.799446480911
8	16774	273.634468734968	16.064586920829
8	19358	314.653810607892	26.948431666482
8	20405	331.253810607726	14.261082960046
8	21523	349.543721088605	13.49697142963
8	23445	379.877054421635	23.909355446464
8	25049	405.963147429314	19.457840989518
8	26182	423.763147429136	11.139212217856
8	28235	457.2861445836	19.514622879875
8	30207	488.703253647019	20.399925589332
8	31568	510.303253646803	17.875544107639
8	33557	541.836586979821	29.719402205695
8	36331	585.986888125008	20.308373852872
8	37700	608.504623122431	10.246383025992
8	38927	629.017817591067	17.54913677683
9	2090	38.629290411249	28.859226147316
9	3644	63.927591021957	21.047259170611
9	5207	88.727591021709	21.790318145337
9	6773	113.660928624793	17.84354142612
9	8515	141.74914658117	24.074334681173
9	9889	163.566363157645	18.257886996163
9	11529	189.566363157385	17.165898070956
9	12672	207.766435157203	15.421776925236
9	13910	227.511753050589	14.199999999858
9	15797	258.10113540179	18.013997295807
9	17217	280.701135401564	19.869753397065
9	18739	304.85381060799	22.314331756098
9	19894	323.120477274474	14.399133628601
9	21665	351.677054421917	12.203633543906
9	23664	383.477054421599	25.232428956003
9	24902	403.69640876267	18.573155355114
9	26471	428.563147429088	24.635260969105
9	27833	451.086144583662	17.711449047282
9	29276	474.011050525499	15.238013906789
9	30773	497.636586980263	23.021210410878
9	33407	539.369920313179	27.052075867777
9	35371	570.78688812516	11.122175342582
9	37405	602.893587689107	22.96621915548
