version 2
run Small-0-20110902-16:57:13-6406
attr configname Small
attr datetime 20110902-16:57:13
attr experiment Small
attr inifile /home/anuchart/simulation/UCAC/nocrypto.ini
attr iterationvars ""
attr iterationvars2 $repetition=0
attr measurement ""
attr network UCACnet
attr processid 6406
attr repetition 0
attr replication #0
attr resultdir results
attr runnumber 0
attr seedset 0

vector 8  UCACnet.owner[8]  latency:vector  ETV
attr interpolationmode  none
attr title  "Latency time of file print, vector"
attr unit  s
vector 0  UCACnet.owner[0]  latency:vector  ETV
attr interpolationmode  none
attr title  "Latency time of file print, vector"
attr unit  s
vector 4  UCACnet.owner[4]  latency:vector  ETV
attr interpolationmode  none
attr title  "Latency time of file print, vector"
attr unit  s
vector 6  UCACnet.owner[6]  latency:vector  ETV
attr interpolationmode  none
attr title  "Latency time of file print, vector"
attr unit  s
vector 1  UCACnet.owner[1]  latency:vector  ETV
attr interpolationmode  none
attr title  "Latency time of file print, vector"
attr unit  s
vector 3  UCACnet.owner[3]  latency:vector  ETV
attr interpolationmode  none
attr title  "Latency time of file print, vector"
attr unit  s
vector 2  UCACnet.owner[2]  latency:vector  ETV
attr interpolationmode  none
attr title  "Latency time of file print, vector"
attr unit  s
vector 9  UCACnet.owner[9]  latency:vector  ETV
attr interpolationmode  none
attr title  "Latency time of file print, vector"
attr unit  s
vector 5  UCACnet.owner[5]  latency:vector  ETV
attr interpolationmode  none
attr title  "Latency time of file print, vector"
attr unit  s
vector 7  UCACnet.owner[7]  latency:vector  ETV
attr interpolationmode  none
attr title  "Latency time of file print, vector"
attr unit  s
0	1378	27.138678066293	19.179933020636
0	2345	42.712623524799	9.7147974193
0	4999	84.579290191047	36.447762839841
0	5616	94.312623524283	8.533570342662
0	6269	104.712623524179	8.998961843173
0	7869	130.045956857259	15.702042913496
0	10065	165.46463456994	22.891515042909
0	10842	177.864634569816	11.217170871037
0	14018	229.995779486202	22.885027395366
0	16489	269.233083948522	17.635004920907
0	18080	294.499750614936	19.80544609483
0	19290	315.878037759641	14.386528945006
0	21280	348.786728042511	24.153993921167
0	23409	382.719112732308	25.696552772043
0	25142	410.1857793987	16.117108950173
0	27316	444.385779398358	16.830983785412
0	28580	464.385779398158	17.639516593309
0	29949	487.523834592608	17.799989501818
0	31251	508.257167925734	18.641637209961
0	33130	538.023834592104	27.355240878123
0	34562	560.557167925212	16.291647795733
0	36258	587.623834591608	18.814189938952
0	37921	613.957167924678	18.187195969513
0	39611	642.413586472985	18.167370037552
1	1580	30.405344732927	21.419740848088
1	3992	68.579290191207	21.167258042697
1	5628	94.512623524281	20.941654367192
1	8175	134.979290190543	13.374107379505
1	10665	175.13130123651	29.840808724369
1	14035	230.329112819532	17.831538997321
1	15151	248.166417282066	13.84709418875
1	18478	302.944704426437	22.607331730221
1	19525	320.30848510852	14.89377307056
1	21328	349.653394709169	24.760082873254
1	23687	386.985779398932	24.83742217642
1	26581	432.985779398472	21.193169027801
1	28009	455.319112731582	20.957404164948
1	29255	476.244789847513	16.389971586475
1	31371	510.190501259048	21.334145309796
1	33085	537.290501258778	20.288453535899
1	34250	555.75716792526	14.129518018558
1	35900	581.757167925	25.151667922282
1	36575	592.690501258224	5.935871332426
1	37649	609.623834591388	15.034179628649
1	39868	646.480253139611	14.714089476885
2	2070	38.288734136923	25.72942655645
2	3045	53.645956858023	15.034203695758
2	4956	83.912623524387	17.894025542838
2	6869	114.312623524083	16.024213944849
2	8548	141.664634570178	12.44176695316
2	10488	172.197967903206	26.657758677244
2	11998	196.197967902966	17.290342614624
2	13910	228.087372946015	21.307916795442
2	15390	251.833083948696	12.399999999876
2	17366	283.09975061505	24.804949626512
2	19406	318.043461728954	16.043815069103
2	21497	352.386728042475	18.456989376646
2	23313	381.119112732324	21.278970700272
2	24391	398.18577939882	14.0580483961
2	26290	428.252446065186	14.901064550615
2	28027	455.652446064912	25.484005859784
2	28830	468.98201061146	9.366512617285
2	30282	492.857167925888	19.456747939298
2	31917	518.723834592296	20.745053770195
2	33497	543.75716792538	18.807581181491
2	36007	583.557167924982	26.669685860112
2	37872	613.157167924686	21.381155768665
2	38873	630.746919806435	6.302066370248
2	40033	649.213586472917	11.838965456156
3	2041	37.822067470261	19.226025349515
3	4406	75.312623524473	28.887208998092
3	7981	131.779290190575	25.394767747594
3	9081	150.064634570094	9.799999999902
3	10438	171.397967903214	12.241146808879
3	12387	202.665460545394	18.846440312697
3	13479	221.154039612751	15.933333333174
3	15407	252.09975061536	20.131315286909
3	17122	279.299750615088	21.513235239969
3	18398	301.678037759783	10.069102352819
3	19890	326.853394709397	20.109998829258
3	22307	365.119112732484	11.466666666552
3	24262	396.119112732174	27.538651724098
3	26196	426.719112731868	15.728833370974
3	28916	470.844789847567	16.833794493406
3	31623	514.257167925674	26.07352852387
3	33622	545.823834592026	25.495973023673
3	34734	563.42383459185	14.640161616798
3	36327	588.75716792493	20.005206765067
3	38352	620.823834591276	9.906194440162
4	1386	27.272011399625	18.039780084918
4	3713	64.312623524583	17.899068823918
4	5666	95.179290190941	28.107531212112
4	6682	111.245956857447	12.41326251122
4	8431	139.630226905875	21.905228513634
4	10384	170.531301236556	25.034796963278
4	11224	183.864634569756	12.016579490078
4	12413	203.476299624419	16.833369980081
4	13614	223.287372946063	17.095087190518
4	14527	238.199851795993	7.66666666659
4	15511	253.76641728201	11.904152270627
4	17274	281.633083948398	20.838373568748
4	18332	300.678037759793	18.018790234291
4	21549	353.253394709133	15.445450308363
4	23693	387.119112732264	22.876448938138
4	26241	427.452446065194	18.292449762097
4	28310	460.119112731534	20.397211230492
4	30061	489.32383459259	9.300669487714
4	32018	520.457167925612	25.311218443422
4	33376	541.823834592066	19.481415241494
4	35439	574.623834591738	24.71454848874
4	36786	595.957167924858	17.757484669718
4	38457	624.113586473167	6.815893709681
5	2215	40.579290191487	21.063836832643
5	4027	69.179290191201	18.663366561303
5	5214	88.045956857679	16.897112568562
5	7957	131.379290190579	21.357628029558
5	11064	181.397967903114	36.166251691205
5	12862	211.354039612849	27.47312195755
5	14357	235.466518462687	20.465684543783
5	16614	271.233083948502	17.518465450813
5	18014	293.366417281614	19.894989882788
5	19330	316.843461728966	16.23235776014
5	20235	332.320061376009	11.066666666556
5	21455	351.720061375815	17.850926274306
5	24109	393.719112732198	24.061904906152
5	25920	422.452446065244	16.354029716916
5	27339	444.785779398354	20.457597595145
5	31572	513.390501259016	27.629087093472
5	32981	535.65716792546	19.947069876577
5	34130	553.823834591946	13.635380608384
5	36111	585.223834591632	26.838342184061
5	40057	649.613586472913	16.659133246008
6	1438	28.138678066283	20.266666666464
6	4111	70.512623524521	20.837469545498
6	5981	100.112623524225	17.785944694887
6	8448	139.963560239205	20.638112000118
6	11362	186.064634569734	24.893264947694
6	12440	204.043988697133	14.71096374264
6	13801	226.354039612699	19.708124894246
6	16611	271.166417281836	21.447310844636
6	18468	302.744704426439	16.501989521281
6	21160	346.853394709197	23.414534570067
6	22482	367.985779399122	13.439355970075
6	24406	398.452446065484	28.943619504751
6	24833	405.319112732082	4.516716184423
6	28751	467.252446064796	31.327240942075
6	29681	482.911456514113	10.746622464414
6	30292	492.99050125922	9.211094387143
6	33541	544.42383459204	36.418742534351
6	36116	585.290501258298	17.663601488613
6	37828	612.357167924694	19.261300329509
6	38997	632.680253139749	18.213031353436
7	2279	41.579290191477	22.78964964945
7	4152	71.179290191181	19.471186892694
7	5461	91.845956857641	15.784441566062
7	7322	121.512623524011	21.887520627539
7	8512	141.064634570184	12.72155043622
7	10108	166.197967903266	23.714529014804
7	11344	185.731301236404	9.307002427255
7	13032	214.087372946155	21.330098269975
7	14530	238.266518462659	20.310735663948
7	16040	262.233083948592	17.958190528791
7	18219	297.715034771296	32.426003080961
7	19657	323.253394709433	6.370676290511
7	21224	347.786728042521	20.148171176334
7	23059	377.18577939903	22.041740136619
7	24504	399.985779398802	12.8499917485
7	26389	429.919112731836	13.351105438443
7	28583	464.452446064824	13.370391460277
7	31989	519.99050125895	19.964937722114
7	34591	561.09050125854	17.325232092039
7	36238	587.223834591612	19.725544684378
7	37538	607.890501258072	14.918560092581
7	39865	646.413586472945	14.507391351518
8	300	10.072011399797	4.561526533094
8	1972	36.605344732865	22.068408608369
8	2842	50.379290191389	10.434475270335
8	5104	86.312623524363	24.344992018109
8	6232	104.112623524185	12.612472047299
8	8139	134.379290190549	24.194665433809
8	10480	172.064634569874	26.624040939546
8	12112	198.064634569614	20.660607668981
8	16324	266.633083948548	18.910453832341
8	17989	292.966417281618	23.635242295904
8	20785	341.053394709255	17.731637339584
8	22103	361.985779399182	17.25047779856
8	23736	387.919112732256	24.209142231939
8	24507	400.052446065468	10.733830055416
8	25320	412.919112732006	8.514170603771
8	27068	440.585779398396	16.892821594282
8	28570	464.18577939816	20.167158499943
8	29814	485.523834592628	15.112400574415
8	31119	506.190501259088	19.19168603717
8	32815	532.99050125882	21.710881642025
8	33983	551.557167925302	14.31249949487
8	36197	586.557167924952	26.421099697145
8	37371	605.223834591432	15.615407512642
8	38127	617.290501257978	9.345710905068
9	2093	38.645956858173	28.87589259424
9	3432	59.845956857961	16.948958559691
9	5682	95.445956857605	29.745646064079
9	6926	115.245956857407	15.631064525487
9	8405	139.125286322339	14.628733119983
9	10552	173.264634569862	20.109556182158
9	12363	202.265460545398	15.664150604085
9	14470	237.266518462669	29.722406690407
9	15678	256.499750615316	15.228932547818
9	17374	283.233083948382	17.095476772745
9	19840	325.986728042739	26.375356949602
9	21302	349.186728042507	19.757295358419
9	23663	386.585779398936	25.168304145606
9	25355	413.452446065334	20.095171549762
9	26866	437.385779398428	18.051138792575
9	28243	459.119112731544	15.333249599817
9	31448	511.390501259036	25.514979203277
9	33442	542.890501258722	27.302333391411
9	36216	586.823834591616	33.727880751433
9	38090	616.623834591318	11.665518816944
9	39047	633.480253139741	4.333896127606
