version 2
run Small-0-20110902-21:42:02-7035
attr configname Small
attr datetime 20110902-21:42:02
attr experiment Small
attr inifile /home/anuchart/simulation/UCAC/crypto.ini
attr iterationvars ""
attr iterationvars2 $repetition=0
attr measurement ""
attr network UCACnet
attr processid 7035
attr repetition 0
attr replication #0
attr resultdir results
attr runnumber 0
attr seedset 0

vector 8  UCACnet.owner[8]  latency:vector  ETV
attr interpolationmode  none
attr title  "Latency time of file print, vector"
attr unit  s
vector 6  UCACnet.owner[6]  latency:vector  ETV
attr interpolationmode  none
attr title  "Latency time of file print, vector"
attr unit  s
vector 0  UCACnet.owner[0]  latency:vector  ETV
attr interpolationmode  none
attr title  "Latency time of file print, vector"
attr unit  s
vector 1  UCACnet.owner[1]  latency:vector  ETV
attr interpolationmode  none
attr title  "Latency time of file print, vector"
attr unit  s
vector 4  UCACnet.owner[4]  latency:vector  ETV
attr interpolationmode  none
attr title  "Latency time of file print, vector"
attr unit  s
vector 9  UCACnet.owner[9]  latency:vector  ETV
attr interpolationmode  none
attr title  "Latency time of file print, vector"
attr unit  s
vector 2  UCACnet.owner[2]  latency:vector  ETV
attr interpolationmode  none
attr title  "Latency time of file print, vector"
attr unit  s
vector 3  UCACnet.owner[3]  latency:vector  ETV
attr interpolationmode  none
attr title  "Latency time of file print, vector"
attr unit  s
vector 7  UCACnet.owner[7]  latency:vector  ETV
attr interpolationmode  none
attr title  "Latency time of file print, vector"
attr unit  s
vector 5  UCACnet.owner[5]  latency:vector  ETV
attr interpolationmode  none
attr title  "Latency time of file print, vector"
attr unit  s
0	1536	29.843903009797	21.88515796414
0	3207	56.343907279533	19.811478967583
0	5081	87.889907279261	22.618338137398
0	6414	109.389907279067	20.629077449156
0	9618	164.157906971526	16.049114334377
0	11332	191.157906971256	20.711009464128
0	13458	224.75790697092	24.329986276884
0	15351	255.071257383974	18.26196086606
0	17150	284.118851377234	17.191802651093
0	19200	316.318851376912	22.106051068638
0	20682	340.915343897801	13.351561720707
0	22520	370.048677230843	21.895523317025
0	24622	403.942466589708	18.560769359476
0	28091	460.549012930628	20.603995950813
0	29713	486.082346263706	21.354905772605
1	1649	31.643903009779	22.65829912494
1	3189	56.010573946203	19.968412878391
1	4757	82.783907279311	19.567840994237
1	6134	104.623240612427	20.127723071882
1	8372	144.251898431722	18.892181906547
1	10535	178.624573638048	20.95373151743
1	12081	203.024573637804	21.53796717946
1	13890	231.917924050852	18.346207689067
1	15695	260.604590717252	18.925054164769
1	17875	295.385518043788	23.008286203004
1	19376	319.252184710216	22.541501768974
1	20264	334.448677231199	13.170690400063
1	22026	362.115343897589	20.920584189817
1	24118	395.855799923122	22.19306738738
1	25860	423.955804192862	17.682318261517
1	29511	482.949012930404	21.107269225839
2	1951	36.477240613065	23.917933032592
2	5415	93.156573945875	22.796877200202
2	8479	145.851898431706	19.993625199084
2	10368	175.957906971408	18.958356462886
2	11925	200.491240304496	20.593863144905
2	13654	227.924577907556	22.315629496305
2	15113	251.337924050678	16.90255204161
2	18631	307.452184710334	20.378790481784
2	19828	327.241938564603	17.580069439387
2	20992	345.915343897751	15.599266667144
2	22895	376.522466589982	20.238481951531
2	25936	425.15580419285	17.961438684356
2	27753	455.215679597348	20.488423768821
2	29370	480.749012930426	20.345805380555
3	2273	41.477240613015	22.881198492269
3	3451	60.863907279509	15.069771924755
3	5118	88.489907279255	22.483946576256
3	6518	111.575920089049	17.626864770584
3	8763	150.385231764994	22.356916105334
3	9756	166.357906971504	13.825378401516
3	11565	194.957906971218	21.183052979413
3	13242	221.224573637622	25.610314307732
3	14383	239.871257384126	12.894446586767
3	16406	272.252184710686	19.619849331998
3	18615	307.18551804367	20.176239768416
3	21958	361.048677230933	20.800359433405
3	24030	394.455799923136	21.375439676878
3	25146	412.629133256308	16.351884517931
3	26338	432.922406790369	13.169907570112
3	27626	453.215679597368	19.938038192206
4	1739	33.043903009765	23.811671695058
4	3859	68.583907279453	12.771426715997
4	5399	92.889907279211	22.70247977845
4	7075	123.62522322526	11.860439311673
4	9326	159.491240304906	20.433990673081
4	10816	183.09124030467	21.547205060114
4	12668	212.291240304378	22.175842434554
4	14201	236.937924050822	14.176716974705
4	16625	275.785518043984	14.917416709559
4	18258	301.51885137706	21.010380356926
4	22415	368.248677230861	21.318190725383
4	23993	393.855799923142	21.191564258545
4	25067	411.362466589654	16.703354215544
4	27542	451.815679597382	18.66666666648
4	29129	476.882346263798	20.675897590123
4	30490	498.890794699091	15.659604677735
5	2324	42.343907279673	22.828453920829
5	3655	65.317240612819	15.412203183982
5	6020	102.823240612445	18.688974023551
5	6805	116.375928629003	11.640379479913
5	7853	136.051898431804	13.153341873204
5	9242	158.157906971586	19.847264445412
5	11501	193.891240304562	20.986353198711
5	13280	221.891240304282	25.947219726804
5	16029	266.044590717218	19.997550004137
5	17510	289.652184710512	21.33333333312
5	19253	317.252184710236	22.345646064153
5	20178	333.048677231213	12.786810666562
5	21844	359.248677230951	20.316019895578
5	23123	380.122466589946	18.770901927747
5	24978	409.895799923002	18.043972857616
5	28660	469.482346263872	21.429565078366
5	30036	491.282346263654	16.906323844509
6	1499	29.310569676469	21.43855827665
6	3106	54.743907279549	19.64872263254
6	4644	81.050573945995	18.379925533322
6	6251	106.483240612409	20.716886703994
6	8683	149.051898431674	21.62640232682
6	10623	179.957906971368	21.182796589283
6	13259	221.557906970952	25.85078507541
6	16310	270.718851377368	19.38179419365
6	18055	298.252184710426	22.232626380195
6	19809	326.888605231273	17.844377135856
6	21471	353.448677231009	17.640913463481
6	23033	378.655799923294	20.482110393067
6	24578	403.189133256382	18.733193755698
6	25496	418.269133256252	13.736318913451
6	26798	440.149012930832	14.287377074586
6	28565	468.01567959722	21.037882777729
6	30289	495.331380825789	14.913632629757
7	2312	42.143907279675	23.354266737648
7	3497	62.830573946177	14.783978950362
7	6425	109.589907279065	20.510125807735
7	7290	127.185231765226	10.958232759382
7	9291	158.957906971578	20.013285789254
7	11082	187.291240304628	20.288393748831
7	12706	212.957906971038	22.559515092385
7	13981	233.537924050856	17.332264425744
7	15559	258.404590717274	18.588009265678
7	17706	292.785518043814	23.259252678337
7	19577	322.781938564627	21.085475918875
7	24309	398.855799923092	22.006191189371
7	26308	431.195740123699	13.408417674438
7	28432	465.882346263908	20.957486752022
7	29803	487.549012930358	19.536113635539
8	810	18.510569676577	13.000084809874
8	2685	48.143907279615	17.91841126308
8	4999	86.556573945941	22.257038823434
8	6617	113.175920089033	15.306554393354
8	8879	152.318565098308	22.535957593688
8	12094	203.224573637802	21.69513709296
8	13687	228.391244574218	22.611972708633
8	15038	250.204590717356	16.691494525966
8	16349	271.318851377362	19.759774422017
8	17936	296.385518043778	22.686379782142
8	19641	323.915271897949	20.756510746116
8	21341	351.315343897697	16.279311515479
8	22775	374.589133256668	20.675848130852
8	24354	399.655799923084	22.077860701352
8	26066	427.395740123737	15.875129876454
8	27654	453.68234626403	19.753803940555
8	29080	476.149012930472	20.386099013338
9	1758	33.377236343095	23.607172079162
9	3067	54.077240612889	19.716157578868
9	5472	94.089907279199	22.757221329733
9	7019	121.982667295655	11.768250763427
9	8843	151.718565098314	22.186253590763
9	10697	181.157906971356	21.330995288373
9	13194	220.42457363763	24.847098153379
9	14674	244.47125738408	13.58453730611
9	16034	266.111257383884	19.994387742059
9	17597	291.118851377164	22.112193599125
9	19310	318.18551804356	22.335541093364
9	20876	343.982010564437	15.249633400014
9	22483	369.382010564183	21.997229914963
9	23661	388.72246658986	17.253333333162
9	25906	424.622470859522	17.896687692505
9	26770	439.749012930836	14.086606140415
9	28144	461.415679597286	20.266903675878
9	29867	488.615679597014	19.976870489432
