version 2
run Small-0-20110902-21:41:49-7016
attr configname Small
attr datetime 20110902-21:41:49
attr experiment Small
attr inifile /home/anuchart/simulation/UCAC/nocrypto.ini
attr iterationvars ""
attr iterationvars2 $repetition=0
attr measurement ""
attr network UCACnet
attr processid 7016
attr repetition 0
attr replication #0
attr resultdir results
attr runnumber 0
attr seedset 0

vector 8  UCACnet.owner[8]  latency:vector  ETV
attr interpolationmode  none
attr title  "Latency time of file print, vector"
attr unit  s
vector 6  UCACnet.owner[6]  latency:vector  ETV
attr interpolationmode  none
attr title  "Latency time of file print, vector"
attr unit  s
vector 0  UCACnet.owner[0]  latency:vector  ETV
attr interpolationmode  none
attr title  "Latency time of file print, vector"
attr unit  s
vector 1  UCACnet.owner[1]  latency:vector  ETV
attr interpolationmode  none
attr title  "Latency time of file print, vector"
attr unit  s
vector 4  UCACnet.owner[4]  latency:vector  ETV
attr interpolationmode  none
attr title  "Latency time of file print, vector"
attr unit  s
vector 9  UCACnet.owner[9]  latency:vector  ETV
attr interpolationmode  none
attr title  "Latency time of file print, vector"
attr unit  s
vector 2  UCACnet.owner[2]  latency:vector  ETV
attr interpolationmode  none
attr title  "Latency time of file print, vector"
attr unit  s
vector 3  UCACnet.owner[3]  latency:vector  ETV
attr interpolationmode  none
attr title  "Latency time of file print, vector"
attr unit  s
vector 7  UCACnet.owner[7]  latency:vector  ETV
attr interpolationmode  none
attr title  "Latency time of file print, vector"
attr unit  s
vector 5  UCACnet.owner[5]  latency:vector  ETV
attr interpolationmode  none
attr title  "Latency time of file print, vector"
attr unit  s
0	1519	29.577151533133	21.618406487476
0	3207	56.343818199533	20.078141364247
0	5075	87.834251975352	22.562771913489
0	6391	109.207585308494	20.36907744916
0	7226	126.837394554584	10.879384185979
0	9217	158.850727887618	19.85394391594
0	11108	188.905046630892	22.522712492383
0	12756	214.838379963966	22.559515092385
0	14321	239.701680068915	14.459999999876
0	16660	277.149274062073	13.584083376221
0	18291	302.815940728483	20.743713690262
0	22456	369.896133182114	21.468557325215
0	24101	396.676589207717	22.098230925203
0	25826	424.356589207445	17.062313991507
0	29467	483.236468881653	20.860606829173
1	1645	31.577151533113	22.591547648274
1	3197	56.143818199535	20.235075275055
1	4764	82.883892665805	19.601248794065
1	6137	104.70091864185	20.238749048143
1	8521	147.170727887714	21.733333333116
1	10776	183.638379964278	22.782041721004
1	13228	222.371713297224	24.513764820049
1	16269	270.882607395469	19.265077218807
1	18035	298.815940728523	22.632626380191
1	19808	327.742607394941	18.134623281427
1	21447	354.096133182272	17.301033917744
1	22974	378.876589207895	19.855443726407
1	24545	403.743255874313	19.19986042236
1	25466	418.623255874167	13.402985580103
1	26740	440.236468882083	14.154043741254
1	28178	462.769802215191	21.266903675868
1	29922	490.436468881581	20.110203822764
2	1950	36.410484866399	23.851177285926
2	5411	93.167585308632	22.807977642959
2	8574	148.037394554372	22.301443292325
2	10355	177.038379964344	17.919999999822
2	11904	201.371713297434	20.593863144905
2	13625	228.575013402339	22.08559199815
2	15066	251.501680068797	16.415872564946
2	18628	308.282607395095	21.112123815092
2	19828	328.142607394937	17.716982251626
2	20999	347.029466515676	15.812720454735
2	22870	377.209922541245	19.745148618203
2	25906	425.689922540765	17.808101081008
2	27699	455.369802215265	20.061761372157
2	29114	477.569802215043	20.18609901334
2	30490	499.776468881509	16.057822908906
3	2230	40.810484866355	22.214442745609
3	3451	60.603818199511	15.543105258083
3	5111	88.434251975346	22.688380352345
3	6484	110.714251975146	16.754185293924
3	8743	150.704061221012	23.670747008587
3	9674	166.305046631118	13.120355271782
3	11509	195.238379964162	21.583052979409
3	13090	220.038379963914	24.14364764108
3	14663	245.101680068861	14.467820331275
3	15972	265.861680068655	18.981054408717
3	17342	287.882607395299	19.813333333136
3	19378	320.082607394977	22.172717735304
3	20269	335.496133182458	13.254390333229
3	22003	362.896133182184	20.520584189821
3	24075	396.276589207721	21.89973405405
3	25179	413.916589207547	15.818551184585
3	26412	435.036468882135	13.929847043973
3	27782	456.636468881919	20.998098718327
3	29407	482.303135548329	20.412472047221
4	1736	32.977151533099	23.744920218392
4	3846	68.283892665951	12.471496912495
4	5365	92.434251975306	22.546839088047
4	7043	122.967585308424	11.591790032076
4	9190	158.364061220956	20.077782839299
4	11431	193.971713297508	21.127338608951
4	13182	221.505046630566	25.34721972681
4	14458	241.835013402227	14.844396278588
4	16359	272.349274062121	17.753182665332
4	18611	307.949274061765	20.842906435076
4	21949	361.96279984886	20.884059366571
4	23981	394.743255874403	20.88210634355
4	25065	412.183255874231	16.570020882194
4	27509	452.236468881963	18.466666666482
4	29020	476.169802215057	19.475897590135
5	2330	42.477151533005	22.961698174161
5	3664	65.417225999313	15.512277650476
5	6121	104.434251975186	20.066666666466
5	6886	117.574251975102	11.227691463271
5	8035	139.637394554456	15.607181316423
5	9332	160.838379964506	18.675574649016
5	10894	185.505046630926	22.813871726768
5	12782	215.305046630628	22.842509101214
5	13974	234.215013402303	15.595547450935
5	15528	258.701680068725	18.40800926568
5	17723	293.882607395239	23.859252678313
5	19621	324.569274061619	21.709055397776
5	21356	352.62946651562	16.739431969734
5	22766	375.476589207929	20.315848130856
5	24357	400.676589207677	22.211194034684
5	26311	432.109922540701	12.501810806855
5	28476	467.569802215143	21.750760286255
5	29849	489.236468881593	19.669446968871
6	1485	29.043818199805	21.171806799986
6	3110	54.810484866215	19.915385029204
6	4618	80.550559332495	17.74666666649
6	6204	106.02091864184	20.554579346927
6	8736	150.57072788768	23.920887086725
6	10702	182.371713297624	22.211106792865
6	13328	223.905046630542	25.450785075414
6	16026	266.795013401979	19.000833029302
6	17621	292.282607395255	22.858860265785
6	19331	319.282607394985	22.268874426698
6	20882	345.162799849028	15.133333333182
6	22500	370.696133182106	22.130563248295
6	23656	389.743255874453	17.093333333164
6	25888	425.356589207435	17.543350089159
6	26782	440.903135548743	14.506610410409
6	28542	468.636468881799	21.037882777729
6	30298	496.449802214855	15.611264734242
7	2297	41.943818199677	23.15417765765
7	3490	62.650484866177	14.870645617026
7	6368	108.807585308498	20.0212262505
7	9586	164.905046631132	17.178575964554
7	11368	192.971713297518	21.84434279745
7	13481	226.375013402361	24.399953048727
7	15393	256.568346735413	18.341943786056
7	17507	290.415940728607	21.925135984361
7	19216	317.415940728337	21.812312730825
7	20659	341.62946651573	13.035261653877
7	22510	370.896133182104	22.028856650357
7	24618	404.963255874301	18.600769359476
7	28096	461.636468881869	20.603995950795
7	29666	486.303135548289	20.688239105945
8	810	18.510484866577	12.999999999874
8	2702	48.410484866279	18.185073659744
8	5029	87.100918642026	22.468139266189
8	6629	113.087585308456	14.673874916692
8	8850	152.57072788766	22.876455163617
8	11964	202.305046630758	20.190113963234
8	13862	232.441680068967	19.38949071423
8	15639	260.568346735373	18.231720831443
8	17798	295.149274061893	22.741619536322
8	19264	318.282607394995	22.074835102312
8	20190	334.29613318247	13.070510599726
8	21879	360.762799848872	20.649353228908
8	23109	381.009922541207	18.010901927755
8	24941	410.116589207585	17.377306190938
8	28630	469.969802215119	21.69623174503
8	30065	492.703135548225	17.839657177833
9	1761	33.443818199761	23.673753935828
9	3071	54.143818199555	19.782819975534
9	5437	93.634251975294	22.234988439162
9	7019	121.66091864175	11.902157413427
9	8811	151.904061221	22.693498367354
9	10670	181.905046630962	21.759305491961
9	12121	204.838379964066	19.671300512812
9	13706	229.975013402325	22.448601877144
9	15007	250.501680068807	15.671481715974
9	16277	271.015940728801	19.159774422005
9	17864	296.149274061883	22.88637978214
9	19607	324.369274061621	21.780090225013
9	24373	400.943255874341	22.306311643628
9	26034	427.689922540745	14.815189675539
9	27625	454.169802215277	20.080410808126
